Title="TOUGHREACT V3.30-OMP flowdata.tec: P,T,SAT & Other Variables"                                                                                                                                                                                                                                                                                                                                                                                                                                                                                                                                                                                                                                                                                                                                                            
Variables= "X(m)"     "Y(m)"      "Z(m)"       "P(Pa)"        "T(C)"      "SatGas"      "SatLiq"          "X1"          "X2"    "Pcap(Pa)"  "DGas_kg/m3"  "DLiq_kg/m3"    "Porosity"  "Perm_X(m2)"  "Perm_Y(m2)"  "Perm_Z(m2)"    "Krel_Gas"    "Krel_Liq"                                                                                                                                                                                                                                                                                                                                                                                                                                                                                                                                                                      
Zone T= "1.00000000E+00 sec" I=     4 J=     4 K=     4 F=Point
  5.000000E-01  5.000000E-01 -3.500000E+00  3.959498E+07  1.099825E+02  0.000000E+00  1.000000E+00  1.000000E+00  0.000000E+00  0.000000E+00  8.260351E-01  9.691103E+02  1.082143E-01  7.972767E-16  7.972767E-16  1.800000E-08  0.000000E+00  1.000000E+00                                                                                                                                                                                                                                                                                                                                                                                                                                                                                                                                                                    
  1.500000E+00  5.000000E-01 -3.500000E+00  3.959498E+07  1.099825E+02  0.000000E+00  1.000000E+00  1.000000E+00  0.000000E+00  0.000000E+00  8.260351E-01  9.691103E+02  1.000000E-01  7.900000E-16  7.900000E-16  7.900000E-16  0.000000E+00  1.000000E+00                                                                                                                                                                                                                                                                                                                                                                                                                                                                                                                                                                    
  2.500000E+00  5.000000E-01 -3.500000E+00  3.959498E+07  1.099825E+02  0.000000E+00  1.000000E+00  1.000000E+00  0.000000E+00  0.000000E+00  8.260351E-01  9.691103E+02  1.000000E-01  7.900000E-16  7.900000E-16  7.900000E-16  0.000000E+00  1.000000E+00                                                                                                                                                                                                                                                                                                                                                                                                                                                                                                                                                                    
  3.500000E+00  5.000000E-01 -3.500000E+00  3.959498E+07  1.099825E+02  0.000000E+00  1.000000E+00  1.000000E+00  0.000000E+00  0.000000E+00  8.260351E-01  9.691103E+02  1.000000E-01  7.900000E-16  7.900000E-16  7.900000E-16  0.000000E+00  1.000000E+00                                                                                                                                                                                                                                                                                                                                                                                                                                                                                                                                                                    
  5.000000E-01  5.000000E-01 -2.500000E+00  3.958493E+07  1.099475E+02  0.000000E+00  1.000000E+00  1.000000E+00  0.000000E+00  0.000000E+00  8.251264E-01  9.691308E+02  1.082143E-01  7.972767E-16  7.972767E-16  1.800000E-08  0.000000E+00  1.000000E+00                                                                                                                                                                                                                                                                                                                                                                                                                                                                                                                                                                    
  1.500000E+00  5.000000E-01 -2.500000E+00  3.958493E+07  1.099475E+02  0.000000E+00  1.000000E+00  1.000000E+00  0.000000E+00  0.000000E+00  8.251264E-01  9.691308E+02  1.000000E-01  7.900000E-16  7.900000E-16  7.900000E-16  0.000000E+00  1.000000E+00                                                                                                                                                                                                                                                                                                                                                                                                                                                                                                                                                                    
  2.500000E+00  5.000000E-01 -2.500000E+00  3.958493E+07  1.099475E+02  0.000000E+00  1.000000E+00  1.000000E+00  0.000000E+00  0.000000E+00  8.251264E-01  9.691308E+02  1.000000E-01  7.900000E-16  7.900000E-16  7.900000E-16  0.000000E+00  1.000000E+00                                                                                                                                                                                                                                                                                                                                                                                                                                                                                                                                                                    
  3.500000E+00  5.000000E-01 -2.500000E+00  3.958493E+07  1.099475E+02  0.000000E+00  1.000000E+00  1.000000E+00  0.000000E+00  0.000000E+00  8.251264E-01  9.691308E+02  1.000000E-01  7.900000E-16  7.900000E-16  7.900000E-16  0.000000E+00  1.000000E+00                                                                                                                                                                                                                                                                                                                                                                                                                                                                                                                                                                    
  5.000000E-01  5.000000E-01 -1.500000E+00  3.957489E+07  1.099279E+02  0.000000E+00  1.000000E+00  1.000000E+00  0.000000E+00  0.000000E+00  8.246185E-01  9.691403E+02  7.666619E-03  0.000000E+00  0.000000E+00  1.800000E-08  0.000000E+00  1.000000E+00                                                                                                                                                                                                                                                                                                                                                                                                                                                                                                                                                                    
  1.500000E+00  5.000000E-01 -1.500000E+00  3.957489E+07  1.099125E+02  0.000000E+00  1.000000E+00  1.000000E+00  0.000000E+00  0.000000E+00  8.242185E-01  9.691513E+02  2.000000E-01  1.900000E-19  1.900000E-19  1.900000E-19  0.000000E+00  1.000000E+00                                                                                                                                                                                                                                                                                                                                                                                                                                                                                                                                                                    
  2.500000E+00  5.000000E-01 -1.500000E+00  3.957489E+07  1.099125E+02  0.000000E+00  1.000000E+00  1.000000E+00  0.000000E+00  0.000000E+00  8.242185E-01  9.691513E+02  2.000000E-01  1.900000E-19  1.900000E-19  1.900000E-19  0.000000E+00  1.000000E+00                                                                                                                                                                                                                                                                                                                                                                                                                                                                                                                                                                    
  3.500000E+00  5.000000E-01 -1.500000E+00  3.957489E+07  1.099125E+02  0.000000E+00  1.000000E+00  1.000000E+00  0.000000E+00  0.000000E+00  8.242185E-01  9.691513E+02  2.000000E-01  1.900000E-19  1.900000E-19  1.900000E-19  0.000000E+00  1.000000E+00                                                                                                                                                                                                                                                                                                                                                                                                                                                                                                                                                                    
  5.000000E-01  5.000000E-01 -5.000000E-01  3.956484E+07  1.098775E+02  0.000000E+00  1.000000E+00  1.000000E+00  0.000000E+00  0.000000E+00  8.233114E-01  9.691717E+02  7.666617E-03  0.000000E+00  0.000000E+00  1.800000E-08  0.000000E+00  1.000000E+00                                                                                                                                                                                                                                                                                                                                                                                                                                                                                                                                                                    
  1.500000E+00  5.000000E-01 -5.000000E-01  3.956484E+07  1.098775E+02  0.000000E+00  1.000000E+00  1.000000E+00  0.000000E+00  0.000000E+00  8.233114E-01  9.691717E+02  2.000000E-01  1.900000E-19  1.900000E-19  1.900000E-19  0.000000E+00  1.000000E+00                                                                                                                                                                                                                                                                                                                                                                                                                                                                                                                                                                    
  2.500000E+00  5.000000E-01 -5.000000E-01  3.956484E+07  1.098775E+02  0.000000E+00  1.000000E+00  1.000000E+00  0.000000E+00  0.000000E+00  8.233114E-01  9.691717E+02  2.000000E-01  1.900000E-19  1.900000E-19  1.900000E-19  0.000000E+00  1.000000E+00                                                                                                                                                                                                                                                                                                                                                                                                                                                                                                                                                                    
  3.500000E+00  5.000000E-01 -5.000000E-01  3.956484E+07  1.098775E+02  0.000000E+00  1.000000E+00  1.000000E+00  0.000000E+00  0.000000E+00  8.233114E-01  9.691717E+02  2.000000E-01  1.900000E-19  1.900000E-19  1.900000E-19  0.000000E+00  1.000000E+00                                                                                                                                                                                                                                                                                                                                                                                                                                                                                                                                                                    
  5.000000E-01  1.500000E+00 -3.500000E+00  3.959498E+07  1.099825E+02  0.000000E+00  1.000000E+00  1.000000E+00  0.000000E+00  0.000000E+00  8.260351E-01  9.691103E+02  1.000000E-01  7.900000E-16  7.900000E-16  7.900000E-16  0.000000E+00  1.000000E+00                                                                                                                                                                                                                                                                                                                                                                                                                                                                                                                                                                    
  1.500000E+00  1.500000E+00 -3.500000E+00  3.959498E+07  1.099825E+02  0.000000E+00  1.000000E+00  1.000000E+00  0.000000E+00  0.000000E+00  8.260351E-01  9.691103E+02  1.000000E-01  7.900000E-16  7.900000E-16  7.900000E-16  0.000000E+00  1.000000E+00                                                                                                                                                                                                                                                                                                                                                                                                                                                                                                                                                                    
  2.500000E+00  1.500000E+00 -3.500000E+00  3.959498E+07  1.099825E+02  0.000000E+00  1.000000E+00  1.000000E+00  0.000000E+00  0.000000E+00  8.260351E-01  9.691103E+02  1.000000E-01  7.900000E-16  7.900000E-16  7.900000E-16  0.000000E+00  1.000000E+00                                                                                                                                                                                                                                                                                                                                                                                                                                                                                                                                                                    
  3.500000E+00  1.500000E+00 -3.500000E+00  3.959498E+07  1.099825E+02  0.000000E+00  1.000000E+00  1.000000E+00  0.000000E+00  0.000000E+00  8.260351E-01  9.691103E+02  1.000000E-01  7.900000E-16  7.900000E-16  7.900000E-16  0.000000E+00  1.000000E+00                                                                                                                                                                                                                                                                                                                                                                                                                                                                                                                                                                    
  5.000000E-01  1.500000E+00 -2.500000E+00  3.958494E+07  1.099475E+02  0.000000E+00  1.000000E+00  1.000000E+00  0.000000E+00  0.000000E+00  8.251264E-01  9.691308E+02  1.000000E-01  7.900000E-16  7.900000E-16  7.900000E-16  0.000000E+00  1.000000E+00                                                                                                                                                                                                                                                                                                                                                                                                                                                                                                                                                                    
  1.500000E+00  1.500000E+00 -2.500000E+00  3.958494E+07  1.099475E+02  0.000000E+00  1.000000E+00  1.000000E+00  0.000000E+00  0.000000E+00  8.251264E-01  9.691308E+02  1.000000E-01  7.900000E-16  7.900000E-16  7.900000E-16  0.000000E+00  1.000000E+00                                                                                                                                                                                                                                                                                                                                                                                                                                                                                                                                                                    
  2.500000E+00  1.500000E+00 -2.500000E+00  3.958494E+07  1.099475E+02  0.000000E+00  1.000000E+00  1.000000E+00  0.000000E+00  0.000000E+00  8.251264E-01  9.691308E+02  1.000000E-01  7.900000E-16  7.900000E-16  7.900000E-16  0.000000E+00  1.000000E+00                                                                                                                                                                                                                                                                                                                                                                                                                                                                                                                                                                    
  3.500000E+00  1.500000E+00 -2.500000E+00  3.958493E+07  1.099475E+02  0.000000E+00  1.000000E+00  1.000000E+00  0.000000E+00  0.000000E+00  8.251264E-01  9.691308E+02  1.000000E-01  7.900000E-16  7.900000E-16  7.900000E-16  0.000000E+00  1.000000E+00                                                                                                                                                                                                                                                                                                                                                                                                                                                                                                                                                                    
  5.000000E-01  1.500000E+00 -1.500000E+00  3.957489E+07  1.099125E+02  0.000000E+00  1.000000E+00  1.000000E+00  0.000000E+00  0.000000E+00  8.242185E-01  9.691513E+02  2.000000E-01  1.900000E-19  1.900000E-19  1.900000E-19  0.000000E+00  1.000000E+00                                                                                                                                                                                                                                                                                                                                                                                                                                                                                                                                                                    
  1.500000E+00  1.500000E+00 -1.500000E+00  3.957489E+07  1.099125E+02  0.000000E+00  1.000000E+00  1.000000E+00  0.000000E+00  0.000000E+00  8.242185E-01  9.691513E+02  2.000000E-01  1.900000E-19  1.900000E-19  1.900000E-19  0.000000E+00  1.000000E+00                                                                                                                                                                                                                                                                                                                                                                                                                                                                                                                                                                    
  2.500000E+00  1.500000E+00 -1.500000E+00  3.957489E+07  1.099125E+02  0.000000E+00  1.000000E+00  1.000000E+00  0.000000E+00  0.000000E+00  8.242185E-01  9.691513E+02  2.000000E-01  1.900000E-19  1.900000E-19  1.900000E-19  0.000000E+00  1.000000E+00                                                                                                                                                                                                                                                                                                                                                                                                                                                                                                                                                                    
  3.500000E+00  1.500000E+00 -1.500000E+00  3.957489E+07  1.099125E+02  0.000000E+00  1.000000E+00  1.000000E+00  0.000000E+00  0.000000E+00  8.242185E-01  9.691513E+02  2.000000E-01  1.900000E-19  1.900000E-19  1.900000E-19  0.000000E+00  1.000000E+00                                                                                                                                                                                                                                                                                                                                                                                                                                                                                                                                                                    
  5.000000E-01  1.500000E+00 -5.000000E-01  3.956484E+07  1.098775E+02  0.000000E+00  1.000000E+00  1.000000E+00  0.000000E+00  0.000000E+00  8.233114E-01  9.691717E+02  2.000000E-01  1.900000E-19  1.900000E-19  1.900000E-19  0.000000E+00  1.000000E+00                                                                                                                                                                                                                                                                                                                                                                                                                                                                                                                                                                    
  1.500000E+00  1.500000E+00 -5.000000E-01  3.956484E+07  1.098775E+02  0.000000E+00  1.000000E+00  1.000000E+00  0.000000E+00  0.000000E+00  8.233114E-01  9.691717E+02  2.000000E-01  1.900000E-19  1.900000E-19  1.900000E-19  0.000000E+00  1.000000E+00                                                                                                                                                                                                                                                                                                                                                                                                                                                                                                                                                                    
  2.500000E+00  1.500000E+00 -5.000000E-01  3.956484E+07  1.098775E+02  0.000000E+00  1.000000E+00  1.000000E+00  0.000000E+00  0.000000E+00  8.233114E-01  9.691717E+02  2.000000E-01  1.900000E-19  1.900000E-19  1.900000E-19  0.000000E+00  1.000000E+00                                                                                                                                                                                                                                                                                                                                                                                                                                                                                                                                                                    
  3.500000E+00  1.500000E+00 -5.000000E-01  3.956484E+07  1.098775E+02  0.000000E+00  1.000000E+00  1.000000E+00  0.000000E+00  0.000000E+00  8.233114E-01  9.691717E+02  2.000000E-01  1.900000E-19  1.900000E-19  1.900000E-19  0.000000E+00  1.000000E+00                                                                                                                                                                                                                                                                                                                                                                                                                                                                                                                                                                    
  5.000000E-01  2.500000E+00 -3.500000E+00  3.959498E+07  1.099825E+02  0.000000E+00  1.000000E+00  1.000000E+00  0.000000E+00  0.000000E+00  8.260351E-01  9.691103E+02  1.000000E-01  7.900000E-16  7.900000E-16  7.900000E-16  0.000000E+00  1.000000E+00                                                                                                                                                                                                                                                                                                                                                                                                                                                                                                                                                                    
  1.500000E+00  2.500000E+00 -3.500000E+00  3.959498E+07  1.099825E+02  0.000000E+00  1.000000E+00  1.000000E+00  0.000000E+00  0.000000E+00  8.260351E-01  9.691103E+02  1.000000E-01  7.900000E-16  7.900000E-16  7.900000E-16  0.000000E+00  1.000000E+00                                                                                                                                                                                                                                                                                                                                                                                                                                                                                                                                                                    
  2.500000E+00  2.500000E+00 -3.500000E+00  3.959498E+07  1.099825E+02  0.000000E+00  1.000000E+00  1.000000E+00  0.000000E+00  0.000000E+00  8.260351E-01  9.691103E+02  1.000000E-01  7.900000E-16  7.900000E-16  7.900000E-16  0.000000E+00  1.000000E+00                                                                                                                                                                                                                                                                                                                                                                                                                                                                                                                                                                    