Title="TOUGHREACT V3.30-OMP flowdata.tec: P,T,SAT & Other Variables"
Variables= "X(m)"     "Y(m)"      "Z(m)"       "P(Pa)"        "T(C)"      "SatGas"      "SatLiq"          "X1"          "X2"    "Pcap(Pa)"  "DGas_kg/m3"  "DLiq_kg/m3"    "Porosity"  "Perm_X(m2)"  "Perm_Y(m2)"  "Perm_Z(m2)"    "Krel_Gas"    "Krel_Liq"
Zone T= "5.00000000E-02 sec" I=     6 J=     6 K=     6 F=Point
  5.000000E-01  5.000000E-01 -5.500000E+00  3.959498E+07  1.099825E+02  0.000000E+00  1.000000E+00  1.000000E+00  0.000000E+00  0.000000E+00  8.260351E-01  9.691103E+02  2.073016E-01  1.110132E-17  1.110132E-17  1.800000E-08  0.000000E+00  1.000000E+00
  1.500000E+00  5.000000E-01 -5.500000E+00  3.959498E+07  1.099825E+02  0.000000E+00  1.000000E+00  1.000000E+00  0.000000E+00  0.000000E+00  8.260351E-01  9.691103E+02  2.000000E-01  1.100000E-17  1.100000E-17  1.100000E-17  0.000000E+00  1.000000E+00
  2.500000E+00  5.000000E-01 -5.500000E+00  3.959498E+07  1.099825E+02  0.000000E+00  1.000000E+00  1.000000E+00  0.000000E+00  0.000000E+00  8.260351E-01  9.691103E+02  2.000000E-01  1.100000E-17  1.100000E-17  1.100000E-17  0.000000E+00  1.000000E+00
  3.500000E+00  5.000000E-01 -5.500000E+00  3.959498E+07  1.099825E+02  0.000000E+00  1.000000E+00  1.000000E+00  0.000000E+00  0.000000E+00  8.260351E-01  9.691103E+02  2.000000E-01  1.100000E-17  1.100000E-17  1.100000E-17  0.000000E+00  1.000000E+00
  4.500000E+00  5.000000E-01 -5.500000E+00  3.959498E+07  1.099825E+02  0.000000E+00  1.000000E+00  1.000000E+00  0.000000E+00  0.000000E+00  8.260351E-01  9.691103E+02  2.000000E-01  1.100000E-17  1.100000E-17  1.100000E-17  0.000000E+00  1.000000E+00
  5.500000E+00  5.000000E-01 -5.500000E+00  3.959498E+07  1.099825E+02  0.000000E+00  1.000000E+00  1.000000E+00  0.000000E+00  0.000000E+00  8.260351E-01  9.691103E+02  2.000000E-01  1.100000E-17  1.100000E-17  1.100000E-17  0.000000E+00  1.000000E+00
  5.000000E-01  5.000000E-01 -4.500000E+00  3.958493E+07  1.099475E+02  0.000000E+00  1.000000E+00  1.000000E+00  0.000000E+00  0.000000E+00  8.251264E-01  9.691308E+02  2.073016E-01  1.110132E-13  1.110132E-13  1.800000E-08  0.000000E+00  1.000000E+00
  1.500000E+00  5.000000E-01 -4.500000E+00  3.958493E+07  1.099475E+02  0.000000E+00  1.000000E+00  1.000000E+00  0.000000E+00  0.000000E+00  8.251264E-01  9.691308E+02  2.000000E-01  1.100000E-13  1.100000E-13  1.100000E-15  0.000000E+00  1.000000E+00
  2.500000E+00  5.000000E-01 -4.500000E+00  3.958493E+07  1.099475E+02  0.000000E+00  1.000000E+00  1.000000E+00  0.000000E+00  0.000000E+00  8.251264E-01  9.691308E+02  2.000000E-01  1.100000E-13  1.100000E-13  1.100000E-15  0.000000E+00  1.000000E+00
  3.500000E+00  5.000000E-01 -4.500000E+00  3.958493E+07  1.099475E+02  0.000000E+00  1.000000E+00  1.000000E+00  0.000000E+00  0.000000E+00  8.251264E-01  9.691308E+02  2.000000E-01  1.100000E-13  1.100000E-13  1.100000E-15  0.000000E+00  1.000000E+00
  4.500000E+00  5.000000E-01 -4.500000E+00  3.958493E+07  1.099475E+02  0.000000E+00  1.000000E+00  1.000000E+00  0.000000E+00  0.000000E+00  8.251264E-01  9.691308E+02  2.000000E-01  1.100000E-13  1.100000E-13  1.100000E-15  0.000000E+00  1.000000E+00
  5.500000E+00  5.000000E-01 -4.500000E+00  3.958493E+07  1.099475E+02  0.000000E+00  1.000000E+00  1.000000E+00  0.000000E+00  0.000000E+00  8.251264E-01  9.691308E+02  2.000000E-01  1.100000E-13  1.100000E-13  1.100000E-15  0.000000E+00  1.000000E+00
  5.000000E-01  5.000000E-01 -3.500000E+00  3.957489E+07  1.099125E+02  0.000000E+00  1.000000E+00  1.000000E+00  0.000000E+00  0.000000E+00  8.242185E-01  9.691513E+02  7.666617E-03  0.000000E+00  0.000000E+00  1.800000E-08  0.000000E+00  1.000000E+00
  1.500000E+00  5.000000E-01 -3.500000E+00  3.957489E+07  1.099125E+02  0.000000E+00  1.000000E+00  1.000000E+00  0.000000E+00  0.000000E+00  8.242185E-01  9.691513E+02  1.000000E-01  1.100000E-12  1.100000E-12  1.100000E-12  0.000000E+00  1.000000E+00
  2.500000E+00  5.000000E-01 -3.500000E+00  3.957489E+07  1.099125E+02  0.000000E+00  1.000000E+00  1.000000E+00  0.000000E+00  0.000000E+00  8.242185E-01  9.691513E+02  1.000000E-01  1.100000E-12  1.100000E-12  1.100000E-12  0.000000E+00  1.000000E+00
  3.500000E+00  5.000000E-01 -3.500000E+00  3.957489E+07  1.099125E+02  0.000000E+00  1.000000E+00  1.000000E+00  0.000000E+00  0.000000E+00  8.242185E-01  9.691513E+02  1.000000E-01  1.100000E-12  1.100000E-12  1.100000E-12  0.000000E+00  1.000000E+00
  4.500000E+00  5.000000E-01 -3.500000E+00  3.957489E+07  1.099125E+02  0.000000E+00  1.000000E+00  1.000000E+00  0.000000E+00  0.000000E+00  8.242185E-01  9.691513E+02  1.000000E-01  1.100000E-12  1.100000E-12  1.100000E-12  0.000000E+00  1.000000E+00
  5.500000E+00  5.000000E-01 -3.500000E+00  3.957489E+07  1.099125E+02  0.000000E+00  1.000000E+00  1.000000E+00  0.000000E+00  0.000000E+00  8.242185E-01  9.691513E+02  1.000000E-01  1.100000E-12  1.100000E-12  1.100000E-12  0.000000E+00  1.000000E+00
  5.000000E-01  5.000000E-01 -2.500000E+00  3.956484E+07  1.098775E+02  0.000000E+00  1.000000E+00  1.000000E+00  0.000000E+00  0.000000E+00  8.233114E-01  9.691717E+02  7.666617E-03  0.000000E+00  0.000000E+00  1.800000E-08  0.000000E+00  1.000000E+00
  1.500000E+00  5.000000E-01 -2.500000E+00  3.956484E+07  1.098775E+02  0.000000E+00  1.000000E+00  1.000000E+00  0.000000E+00  0.000000E+00  8.233114E-01  9.691717E+02  1.000000E-01  1.100000E-12  1.100000E-12  1.100000E-12  0.000000E+00  1.000000E+00
  2.500000E+00  5.000000E-01 -2.500000E+00  3.956484E+07  1.098775E+02  0.000000E+00  1.000000E+00  1.000000E+00  0.000000E+00  0.000000E+00  8.233114E-01  9.691717E+02  1.000000E-01  1.100000E-12  1.100000E-12  1.100000E-12  0.000000E+00  1.000000E+00
  3.500000E+00  5.000000E-01 -2.500000E+00  3.956484E+07  1.098775E+02  0.000000E+00  1.000000E+00  1.000000E+00  0.000000E+00  0.000000E+00  8.233114E-01  9.691717E+02  1.000000E-01  1.100000E-12  1.100000E-12  1.100000E-12  0.000000E+00  1.000000E+00
  4.500000E+00  5.000000E-01 -2.500000E+00  3.956484E+07  1.098775E+02  0.000000E+00  1.000000E+00  1.000000E+00  0.000000E+00  0.000000E+00  8.233114E-01  9.691717E+02  1.000000E-01  1.100000E-12  1.100000E-12  1.100000E-12  0.000000E+00  1.000000E+00
  5.500000E+00  5.000000E-01 -2.500000E+00  3.956484E+07  1.098775E+02  0.000000E+00  1.000000E+00  1.000000E+00  0.000000E+00  0.000000E+00  8.233114E-01  9.691717E+02  1.000000E-01  1.100000E-12  1.100000E-12  1.100000E-12  0.000000E+00  1.000000E+00
  5.000000E-01  5.000000E-01 -1.500000E+00  3.955480E+07  1.098425E+02  0.000000E+00  1.000000E+00  1.000000E+00  0.000000E+00  0.000000E+00  8.224051E-01  9.691922E+02  1.000000E-01  1.100000E-12  1.100000E-12  1.100000E-12  0.000000E+00  1.000000E+00
  1.500000E+00  5.000000E-01 -1.500000E+00  3.955480E+07  1.098425E+02  0.000000E+00  1.000000E+00  1.000000E+00  0.000000E+00  0.000000E+00  8.224051E-01  9.691922E+02  1.000000E-01  1.100000E-12  1.100000E-12  1.100000E-12  0.000000E+00  1.000000E+00
  2.500000E+00  5.000000E-01 -1.500000E+00  3.955480E+07  1.098425E+02  0.000000E+00  1.000000E+00  1.000000E+00  0.000000E+00  0.000000E+00  8.224051E-01  9.691922E+02  1.000000E-01  1.100000E-12  1.100000E-12  1.100000E-12  0.000000E+00  1.000000E+00
  3.500000E+00  5.000000E-01 -1.500000E+00  3.955480E+07  1.098425E+02  0.000000E+00  1.000000E+00  1.000000E+00  0.000000E+00  0.000000E+00  8.224051E-01  9.691922E+02  1.000000E-01  1.100000E-12  1.100000E-12  1.100000E-12  0.000000E+00  1.000000E+00
  4.500000E+00  5.000000E-01 -1.500000E+00  3.955480E+07  1.098425E+02  0.000000E+00  1.000000E+00  1.000000E+00  0.000000E+00  0.000000E+00  8.224051E-01  9.691922E+02  1.000000E-01  1.100000E-12  1.100000E-12  1.100000E-12  0.000000E+00  1.000000E+00
  5.500000E+00  5.000000E-01 -1.500000E+00  3.955480E+07  1.098425E+02  0.000000E+00  1.000000E+00  1.000000E+00  0.000000E+00  0.000000E+00  8.224051E-01  9.691922E+02  1.000000E-01  1.100000E-12  1.100000E-12  1.100000E-12  0.000000E+00  1.000000E+00
  5.000000E-01  5.000000E-01 -5.000000E-01  3.954475E+07  1.098075E+02  0.000000E+00  1.000000E+00  1.000000E+00  0.000000E+00  0.000000E+00  8.214996E-01  9.692127E+02  1.000000E-01  1.100000E-17  1.100000E-17  1.100000E-17  0.000000E+00  1.000000E+00
  1.500000E+00  5.000000E-01 -5.000000E-01  3.954475E+07  1.098075E+02  0.000000E+00  1.000000E+00  1.000000E+00  0.000000E+00  0.000000E+00  8.214996E-01  9.692127E+02  1.000000E-01  1.100000E-17  1.100000E-17  1.100000E-17  0.000000E+00  1.000000E+00
  2.500000E+00  5.000000E-01 -5.000000E-01  3.954475E+07  1.098075E+02  0.000000E+00  1.000000E+00  1.000000E+00  0.000000E+00  0.000000E+00  8.214996E-01  9.692127E+02  1.000000E-01  1.100000E-17  1.100000E-17  1.100000E-17  0.000000E+00  1.000000E+00
  3.500000E+00  5.000000E-01 -5.000000E-01  3.954475E+07  1.098075E+02  0.000000E+00  1.000000E+00  1.000000E+00  0.000000E+00  0.000000E+00  8.214996E-01  9.692127E+02  1.000000E-01  1.100000E-17  1.100000E-17  1.100000E-17  0.000000E+00  1.000000E+00
  4.500000E+00  5.000000E-01 -5.000000E-01  3.954475E+07  1.098075E+02  0.000000E+00  1.000000E+00  1.000000E+00  0.000000E+00  0.000000E+00  8.214996E-01  9.692127E+02  1.000000E-01  1.100000E-17  1.100000E-17  1.100000E-17  0.000000E+00  1.000000E+00
  5.500000E+00  5.000000E-01 -5.000000E-01  3.954475E+07  1.098075E+02  0.000000E+00  1.000000E+00  1.000000E+00  0.000000E+00  0.000000E+00  8.214996E-01  9.692127E+02  1.000000E-01  1.100000E-17  1.100000E-17  1.100000E-17  0.000000E+00  1.000000E+00
  5.000000E-01  1.500000E+00 -5.500000E+00  3.959498E+07  1.099825E+02  0.000000E+00  1.000000E+00  1.000000E+00  0.000000E+00  0.000000E+00  8.260351E-01  9.691103E+02  2.000000E-01  1.100000E-17  1.100000E-17  1.100000E-17  0.000000E+00  1.000000E+00
  1.500000E+00  1.500000E+00 -5.500000E+00  3.959498E+07  1.099825E+02  0.000000E+00  1.000000E+00  1.000000E+00  0.000000E+00  0.000000E+00  8.260351E-01  9.691103E+02  2.000000E-01  1.100000E-17  1.100000E-17  1.100000E-17  0.000000E+00  1.000000E+00
  2.500000E+00  1.500000E+00 -5.500000E+00  3.959498E+07  1.099825E+02  0.000000E+00  1.000000E+00  1.000000E+00  0.000000E+00  0.000000E+00  8.260351E-01  9.691103E+02  2.000000E-01  1.100000E-17  1.100000E-17  1.100000E-17  0.000000E+00  1.000000E+00
  3.500000E+00  1.500000E+00 -5.500000E+00  3.959498E+07  1.099825E+02  0.000000E+00  1.000000E+00  1.000000E+00  0.000000E+00  0.000000E+00  8.260351E-01  9.691103E+02  2.000000E-01  1.100000E-17  1.100000E-17  1.100000E-17  0.000000E+00  1.000000E+00
  4.500000E+00  1.500000E+00 -5.500000E+00  3.959498E+07  1.099825E+02  0.000000E+00  1.000000E+00  1.000000E+00  0.000000E+00  0.000000E+00  8.260351E-01  9.691103E+02  2.000000E-01  1.100000E-17  1.100000E-17  1.100000E-17  0.000000E+00  1.000000E+00
  5.500000E+00  1.500000E+00 -5.500000E+00  3.959498E+07  1.099825E+02  0.000000E+00  1.000000E+00  1.000000E+00  0.000000E+00  0.000000E+00  8.260351E-01  9.691103E+02  2.000000E-01  1.100000E-17  1.100000E-17  1.100000E-17  0.000000E+00  1.000000E+00
  5.000000E-01  1.500000E+00 -4.500000E+00  3.958493E+07  1.099475E+02  0.000000E+00  1.000000E+00  1.000000E+00  0.000000E+00  0.000000E+00  8.251264E-01  9.691308E+02  2.000000E-01  1.100000E-13  1.100000E-13  1.100000E-15  0.000000E+00  1.000000E+00
  1.500000E+00  1.500000E+00 -4.500000E+00  3.958493E+07  1.099475E+02  0.000000E+00  1.000000E+00  1.000000E+00  0.000000E+00  0.000000E+00  8.251264E-01  9.691308E+02  2.000000E-01  1.100000E-13  1.100000E-13  1.100000E-15  0.000000E+00  1.000000E+00
  2.500000E+00  1.500000E+00 -4.500000E+00  3.958493E+07  1.099475E+02  0.000000E+00  1.000000E+00  1.000000E+00  0.000000E+00  0.000000E+00  8.251264E-01  9.691308E+02  2.000000E-01  1.100000E-13  1.100000E-13  1.100000E-15  0.000000E+00  1.000000E+00
  3.500000E+00  1.500000E+00 -4.500000E+00  3.958493E+07  1.099475E+02  0.000000E+00  1.000000E+00  1.000000E+00  0.000000E+00  0.000000E+00  8.251264E-01  9.691308E+02  2.000000E-01  1.100000E-13  1.100000E-13  1.100000E-15  0.000000E+00  1.000000E+00
  4.500000E+00  1.500000E+00 -4.500000E+00  3.958493E+07  1.099475E+02  0.000000E+00  1.000000E+00  1.000000E+00  0.000000E+00  0.000000E+00  8.251264E-01  9.691308E+02  2.000000E-01  1.100000E-13  1.100000E-13  1.100000E-15  0.000000E+00  1.000000E+00
  5.500000E+00  1.500000E+00 -4.500000E+00  3.958493E+07  1.099475E+02  0.000000E+00  1.000000E+00  1.000000E+00  0.000000E+00  0.000000E+00  8.251264E-01  9.691308E+02  2.000000E-01  1.100000E-13  1.100000E-13  1.100000E-15  0.000000E+00  1.000000E+00
  5.000000E-01  1.500000E+00 -3.500000E+00  3.957469E+07  1.099125E+02  0.000000E+00  1.000000E+00  1.000000E+00  0.000000E+00  0.000000E+00  8.242184E-01  9.691512E+02  9.999994E-02  1.100000E-12  1.100000E-12  1.100000E-12  0.000000E+00  1.000000E+00
  1.500000E+00  1.500000E+00 -3.500000E+00  3.957473E+07  1.099125E+02  0.000000E+00  1.000000E+00  1.000000E+00  0.000000E+00  0.000000E+00  8.242184E-01  9.691512E+02  9.999995E-02  1.100000E-12  1.100000E-12  1.100000E-12  0.000000E+00  1.000000E+00
  2.500000E+00  1.500000E+00 -3.500000E+00  3.957473E+07  1.099125E+02  0.000000E+00  1.000000E+00  1.000000E+00  0.000000E+00  0.000000E+00  8.242184E-01  9.691512E+02  9.999995E-02  1.100000E-12  1.100000E-12  1.100000E-12  0.000000E+00  1.000000E+00
  3.500000E+00  1.500000E+00 -3.500000E+00  3.957474E+07  1.099125E+02  0.000000E+00  1.000000E+00  1.000000E+00  0.000000E+00  0.000000E+00  8.242184E-01  9.691512E+02  9.999995E-02  1.100000E-12  1.100000E-12  1.100000E-12  0.000000E+00  1.000000E+00
  4.500000E+00  1.500000E+00 -3.500000E+00  3.957476E+07  1.099125E+02  0.000000E+00  1.000000E+00  1.000000E+00  0.000000E+00  0.000000E+00  8.242184E-01  9.691512E+02  9.999996E-02  1.100000E-12  1.100000E-12  1.100000E-12  0.000000E+00  1.000000E+00
  5.500000E+00  1.500000E+00 -3.500000E+00  3.957489E+07  1.099125E+02  0.000000E+00  1.000000E+00  1.000000E+00  0.000000E+00  0.000000E+00  8.242185E-01  9.691513E+02  1.000000E-01  1.100000E-12  1.100000E-12  1.100000E-12  0.000000E+00  1.000000E+00
  5.000000E-01  1.500000E+00 -2.500000E+00  3.956484E+07  1.098775E+02  0.000000E+00  1.000000E+00  1.000000E+00  0.000000E+00  0.000000E+00  8.233114E-01  9.691717E+02  1.000000E-01  1.100000E-12  1.100000E-12  1.100000E-12  0.000000E+00  1.000000E+00
  1.500000E+00  1.500000E+00 -2.500000E+00  3.956484E+07  1.098775E+02  0.000000E+00  1.000000E+00  1.000000E+00  0.000000E+00  0.000000E+00  8.233114E-01  9.691717E+02  1.000000E-01  1.100000E-12  1.100000E-12  1.100000E-12  0.000000E+00  1.000000E+00
  2.500000E+00  1.500000E+00 -2.500000E+00  3.956484E+07  1.098775E+02  0.000000E+00  1.000000E+00  1.000000E+00  0.000000E+00  0.000000E+00  8.233114E-01  9.691717E+02  1.000000E-01  1.100000E-12  1.100000E-12  1.100000E-12  0.000000E+00  1.000000E+00
  3.500000E+00  1.500000E+00 -2.500000E+00  3.956484E+07  1.098775E+02  0.000000E+00  1.000000E+00  1.000000E+00  0.000000E+00  0.000000E+00  8.233114E-01  9.691717E+02  1.000000E-01  1.100000E-12  1.100000E-12  1.100000E-12  0.000000E+00  1.000000E+00
  4.500000E+00  1.500000E+00 -2.500000E+00  3.956484E+07  1.098775E+02  0.000000E+00  1.000000E+00  1.000000E+00  0.000000E+00  0.000000E+00  8.233114E-01  9.691717E+02  1.000000E-01  1.100000E-12  1.100000E-12  1.100000E-12  0.000000E+00  1.000000E+00
  5.500000E+00  1.500000E+00 -2.500000E+00  3.956484E+07  1.098775E+02  0.000000E+00  1.000000E+00  1.000000E+00  0.000000E+00  0.000000E+00  8.233114E-01  9.691717E+02  1.000000E-01  1.100000E-12  1.100000E-12  1.100000E-12  0.000000E+00  1.000000E+00
  5.000000E-01  1.500000E+00 -1.500000E+00  3.955495E+07  1.098425E+02  0.000000E+00  1.000000E+00  1.000000E+00  0.000000E+00  0.000000E+00  8.224051E-01  9.691923E+02  1.000000E-01  1.100000E-12  1.100000E-12  1.100000E-12  0.000000E+00  1.000000E+00
  1.500000E+00  1.500000E+00 -1.500000E+00  3.955495E+07  1.098425E+02  0.000000E+00  1.000000E+00  1.000000E+00  0.000000E+00  0.000000E+00  8.224051E-01  9.691923E+02  1.000000E-01  1.100000E-12  1.100000E-12  1.100000E-12  0.000000E+00  1.000000E+00
  2.500000E+00  1.500000E+00 -1.500000E+00  3.955495E+07  1.098425E+02  0.000000E+00  1.000000E+00  1.000000E+00  0.000000E+00  0.000000E+00  8.224051E-01  9.691923E+02  1.000000E-01  1.100000E-12  1.100000E-12  1.100000E-12  0.000000E+00  1.000000E+00
  3.500000E+00  1.500000E+00 -1.500000E+00  3.955495E+07  1.098425E+02  0.000000E+00  1.000000E+00  1.000000E+00  0.000000E+00  0.000000E+00  8.224051E-01  9.691923E+02  1.000000E-01  1.100000E-12  1.100000E-12  1.100000E-12  0.000000E+00  1.000000E+00
  4.500000E+00  1.500000E+00 -1.500000E+00  3.955492E+07  1.098425E+02  0.000000E+00  1.000000E+00  1.000000E+00  0.000000E+00  0.000000E+00  8.224051E-01  9.691923E+02  1.000000E-01  1.100000E-12  1.100000E-12  1.100000E-12  0.000000E+00  1.000000E+00
  5.500000E+00  1.500000E+00 -1.500000E+00  3.955480E+07  1.098425E+02  0.000000E+00  1.000000E+00  1.000000E+00  0.000000E+00  0.000000E+00  8.224051E-01  9.691922E+02  1.000000E-01  1.100000E-12  1.100000E-12  1.100000E-12  0.000000E+00  1.000000E+00
  5.000000E-01  1.500000E+00 -5.000000E-01  3.954475E+07  1.098075E+02  0.000000E+00  1.000000E+00  1.000000E+00  0.000000E+00  0.000000E+00  8.214996E-01  9.692127E+02  1.000000E-01  1.100000E-17  1.100000E-17  1.100000E-17  0.000000E+00  1.000000E+00
  1.500000E+00  1.500000E+00 -5.000000E-01  3.954475E+07  1.098075E+02  0.000000E+00  1.000000E+00  1.000000E+00  0.000000E+00  0.000000E+00  8.214996E-01  9.692127E+02  1.000000E-01  1.100000E-17  1.100000E-17  1.100000E-17  0.000000E+00  1.000000E+00
  2.500000E+00  1.500000E+00 -5.000000E-01  3.954475E+07  1.098075E+02  0.000000E+00  1.000000E+00  1.000000E+00  0.000000E+00  0.000000E+00  8.214996E-01  9.692127E+02  1.000000E-01  1.100000E-17  1.100000E-17  1.100000E-17  0.000000E+00  1.000000E+00
  3.500000E+00  1.500000E+00 -5.000000E-01  3.954475E+07  1.098075E+02  0.000000E+00  1.000000E+00  1.000000E+00  0.000000E+00  0.000000E+00  8.214996E-01  9.692127E+02  1.000000E-01  1.100000E-17  1.100000E-17  1.100000E-17  0.000000E+00  1.000000E+00
  4.500000E+00  1.500000E+00 -5.000000E-01  3.954475E+07  1.098075E+02  0.000000E+00  1.000000E+00  1.000000E+00  0.000000E+00  0.000000E+00  8.214996E-01  9.692127E+02  1.000000E-01  1.100000E-17  1.100000E-17  1.100000E-17  0.000000E+00  1.000000E+00
  5.500000E+00  1.500000E+00 -5.000000E-01  3.954475E+07  1.098075E+02  0.000000E+00  1.000000E+00  1.000000E+00  0.000000E+00  0.000000E+00  8.214996E-01  9.692127E+02  1.000000E-01  1.100000E-17  1.100000E-17  1.100000E-17  0.000000E+00  1.000000E+00
  5.000000E-01  2.500000E+00 -5.500000E+00  3.959498E+07  1.099825E+02  0.000000E+00  1.000000E+00  1.000000E+00  0.000000E+00  0.000000E+00  8.260351E-01  9.691103E+02  2.000000E-01  1.100000E-17  1.100000E-17  1.100000E-17  0.000000E+00  1.000000E+00
  1.500000E+00  2.500000E+00 -5.500000E+00  3.959498E+07  1.099825E+02  0.000000E+00  1.000000E+00  1.000000E+00  0.000000E+00  0.000000E+00  8.260351E-01  9.691103E+02  2.000000E-01  1.100000E-17  1.100000E-17  1.100000E-17  0.000000E+00  1.000000E+00
  2.500000E+00  2.500000E+00 -5.500000E+00  3.959498E+07  1.099825E+02  0.000000E+00  1.000000E+00  1.000000E+00  0.000000E+00  0.000000E+00  8.260351E-01  9.691103E+02  2.000000E-01  1.100000E-17  1.100000E-17  1.100000E-17  0.000000E+00  1.000000E+00
  3.500000E+00  2.500000E+00 -5.500000E+00  3.959498E+07  1.099825E+02  0.000000E+00  1.000000E+00  1.000000E+00  0.000000E+00  0.000000E+00  8.260351E-01  9.691103E+02  2.000000E-01  1.100000E-17  1.100000E-17  1.100000E-17  0.000000E+00  1.000000E+00
  4.500000E+00  2.500000E+00 -5.500000E+00  3.959498E+07  1.099825E+02  0.000000E+00  1.000000E+00  1.000000E+00  0.000000E+00  0.000000E+00  8.260351E-01  9.691103E+02  2.000000E-01  1.100000E-17  1.100000E-17  1.100000E-17  0.000000E+00  1.000000E+00
  5.500000E+00  2.500000E+00 -5.500000E+00  3.959498E+07  1.099825E+02  0.000000E+00  1.000000E+00  1.000000E+00  0.000000E+00  0.000000E+00  8.260351E-01  9.691103E+02  2.000000E-01  1.100000E-17  1.100000E-17  1.100000E-17  0.000000E+00  1.000000E+00
  5.000000E-01  2.500000E+00 -4.500000E+00  3.958493E+07  1.099475E+02  0.000000E+00  1.000000E+00  1.000000E+00  0.000000E+00  0.000000E+00  8.251264E-01  9.691308E+02  2.000000E-01  1.100000E-13  1.100000E-13  1.100000E-15  0.000000E+00  1.000000E+00
  1.500000E+00  2.500000E+00 -4.500000E+00  3.958493E+07  1.099475E+02  0.000000E+00  1.000000E+00  1.000000E+00  0.000000E+00  0.000000E+00  8.251264E-01  9.691308E+02  2.000000E-01  1.100000E-13  1.100000E-13  1.100000E-15  0.000000E+00  1.000000E+00
  2.500000E+00  2.500000E+00 -4.500000E+00  3.958493E+07  1.099475E+02  0.000000E+00  1.000000E+00  1.000000E+00  0.000000E+00  0.000000E+00  8.251264E-01  9.691308E+02  2.000000E-01  1.100000E-13  1.100000E-13  1.100000E-15  0.000000E+00  1.000000E+00
  3.500000E+00  2.500000E+00 -4.500000E+00  3.958493E+07  1.099475E+02  0.000000E+00  1.000000E+00  1.000000E+00  0.000000E+00  0.000000E+00  8.251264E-01  9.691308E+02  2.000000E-01  1.100000E-13  1.100000E-13  1.100000E-15  0.000000E+00  1.000000E+00
  4.500000E+00  2.500000E+00 -4.500000E+00  3.958493E+07  1.099475E+02  0.000000E+00  1.000000E+00  1.000000E+00  0.000000E+00  0.000000E+00  8.251264E-01  9.691308E+02  2.000000E-01  1.100000E-13  1.100000E-13  1.100000E-15  0.000000E+00  1.000000E+00
  5.500000E+00  2.500000E+00 -4.500000E+00  3.958493E+07  1.099475E+02  0.000000E+00  1.000000E+00  1.000000E+00  0.000000E+00  0.000000E+00  8.251264E-01  9.691308E+02  2.000000E-01  1.100000E-13  1.100000E-13  1.100000E-15  0.000000E+00  1.000000E+00
  5.000000E-01  2.500000E+00 -3.500000E+00  3.957469E+07  1.099125E+02  0.000000E+00  1.000000E+00  1.000000E+00  0.000000E+00  0.000000E+00  8.242184E-01  9.691512E+02  9.999994E-02  1.100000E-12  1.100000E-12  1.100000E-12  0.000000E+00  1.000000E+00
  1.500000E+00  2.500000E+00 -3.500000E+00  3.957470E+07  1.099125E+02  0.000000E+00  1.000000E+00  1.000000E+00  0.000000E+00  0.000000E+00  8.242184E-01  9.691512E+02  9.999994E-02  1.100000E-12  1.100000E-12  1.100000E-12  0.000000E+00  1.000000E+00
  2.500000E+00  2.500000E+00 -3.500000E+00  3.957470E+07  1.099125E+02  0.000000E+00  1.000000E+00  1.000000E+00  0.000000E+00  0.000000E+00  8.242184E-01  9.691512E+02  9.999994E-02  1.100000E-12  1.100000E-12  1.100000E-12  0.000000E+00  1.000000E+00
  3.500000E+00  2.500000E+00 -3.500000E+00  3.957471E+07  1.099125E+02  0.000000E+00  1.000000E+00  1.000000E+00  0.000000E+00  0.000000E+00  8.242184E-01  9.691512E+02  9.999994E-02  1.100000E-12  1.100000E-12  1.100000E-12  0.000000E+00  1.000000E+00
  4.500000E+00  2.500000E+00 -3.500000E+00  3.957474E+07  1.099125E+02  0.000000E+00  1.000000E+00  1.000000E+00  0.000000E+00  0.000000E+00  8.242184E-01  9.691512E+02  9.999995E-02  1.100000E-12  1.100000E-12  1.100000E-12  0.000000E+00  1.000000E+00
  5.500000E+00  2.500000E+00 -3.500000E+00  3.957489E+07  1.099125E+02  0.000000E+00  1.000000E+00  1.000000E+00  0.000000E+00  0.000000E+00  8.242185E-01  9.691513E+02  1.000000E-01  1.100000E-12  1.100000E-12  1.100000E-12  0.000000E+00  1.000000E+00
  5.000000E-01  2.500000E+00 -2.500000E+00  3.956484E+07  1.098775E+02  0.000000E+00  1.000000E+00  1.000000E+00  0.000000E+00  0.000000E+00  8.233114E-01  9.691717E+02  1.000000E-01  1.100000E-12  1.100000E-12  1.100000E-12  0.000000E+00  1.000000E+00
  1.500000E+00  2.500000E+00 -2.500000E+00  3.956484E+07  1.098775E+02  0.000000E+00  1.000000E+00  1.000000E+00  0.000000E+00  0.000000E+00  8.233114E-01  9.691717E+02  1.000000E-01  1.100000E-12  1.100000E-12  1.100000E-12  0.000000E+00  1.000000E+00
  2.500000E+00  2.500000E+00 -2.500000E+00  3.956484E+07  1.098775E+02  0.000000E+00  1.000000E+00  1.000000E+00  0.000000E+00  0.000000E+00  8.233114E-01  9.691717E+02  1.000000E-01  1.100000E-12  1.100000E-12  1.100000E-12  0.000000E+00  1.000000E+00
  3.500000E+00  2.500000E+00 -2.500000E+00  3.956484E+07  1.098775E+02  0.000000E+00  1.000000E+00  1.000000E+00  0.000000E+00  0.000000E+00  8.233114E-01  9.691717E+02  1.000000E-01  1.100000E-12  1.100000E-12  1.100000E-12  0.000000E+00  1.000000E+00
  4.500000E+00  2.500000E+00 -2.500000E+00  3.956484E+07  1.098775E+02  0.000000E+00  1.000000E+00  1.000000E+00  0.000000E+00  0.000000E+00  8.233114E-01  9.691717E+02  1.000000E-01  1.100000E-12  1.100000E-12  1.100000E-12  0.000000E+00  1.000000E+00
  5.500000E+00  2.500000E+00 -2.500000E+00  3.956484E+07  1.098775E+02  0.000000E+00  1.000000E+00  1.000000E+00  0.000000E+00  0.000000E+00  8.233114E-01  9.691717E+02  1.000000E-01  1.100000E-12  1.100000E-12  1.100000E-12  0.000000E+00  1.000000E+00
  5.000000E-01  2.500000E+00 -1.500000E+00  3.955499E+07  1.098425E+02  0.000000E+00  1.000000E+00  1.000000E+00  0.000000E+00  0.000000E+00  8.224052E-01  9.691923E+02  1.000001E-01  1.100000E-12  1.100000E-12  1.100000E-12  0.000000E+00  1.000000E+00
  1.500000E+00  2.500000E+00 -1.500000E+00  3.955499E+07  1.098425E+02  0.000000E+00  1.000000E+00  1.000000E+00  0.000000E+00  0.000000E+00  8.224052E-01  9.691923E+02  1.000001E-01  1.100000E-12  1.100000E-12  1.100000E-12  0.000000E+00  1.000000E+00
  2.500000E+00  2.500000E+00 -1.500000E+00  3.955498E+07  1.098425E+02  0.000000E+00  1.000000E+00  1.000000E+00  0.000000E+00  0.000000E+00  8.224052E-01  9.691923E+02  1.000001E-01  1.100000E-12  1.100000E-12  1.100000E-12  0.000000E+00  1.000000E+00
  3.500000E+00  2.500000E+00 -1.500000E+00  3.955498E+07  1.098425E+02  0.000000E+00  1.000000E+00  1.000000E+00  0.000000E+00  0.000000E+00  8.224052E-01  9.691923E+02  1.000001E-01  1.100000E-12  1.100000E-12  1.100000E-12  0.000000E+00  1.000000E+00
  4.500000E+00  2.500000E+00 -1.500000E+00  3.955495E+07  1.098425E+02  0.000000E+00  1.000000E+00  1.000000E+00  0.000000E+00  0.000000E+00  8.224051E-01  9.691923E+02  1.000000E-01  1.100000E-12  1.100000E-12  1.100000E-12  0.000000E+00  1.000000E+00
  5.500000E+00  2.500000E+00 -1.500000E+00  3.955480E+07  1.098425E+02  0.000000E+00  1.000000E+00  1.000000E+00  0.000000E+00  0.000000E+00  8.224051E-01  9.691922E+02  1.000000E-01  1.100000E-12  1.100000E-12  1.100000E-12  0.000000E+00  1.000000E+00
  5.000000E-01  2.500000E+00 -5.000000E-01  3.954475E+07  1.098075E+02  0.000000E+00  1.000000E+00  1.000000E+00  0.000000E+00  0.000000E+00  8.214996E-01  9.692127E+02  1.000000E-01  1.100000E-17  1.100000E-17  1.100000E-17  0.000000E+00  1.000000E+00
  1.500000E+00  2.500000E+00 -5.000000E-01  3.954475E+07  1.098075E+02  0.000000E+00  1.000000E+00  1.000000E+00  0.000000E+00  0.000000E+00  8.214996E-01  9.692127E+02  1.000000E-01  1.100000E-17  1.100000E-17  1.100000E-17  0.000000E+00  1.000000E+00
  2.500000E+00  2.500000E+00 -5.000000E-01  3.954475E+07  1.098075E+02  0.000000E+00  1.000000E+00  1.000000E+00  0.000000E+00  0.000000E+00  8.214996E-01  9.692127E+02  1.000000E-01  1.100000E-17  1.100000E-17  1.100000E-17  0.000000E+00  1.000000E+00
  3.500000E+00  2.500000E+00 -5.000000E-01  3.954475E+07  1.098075E+02  0.000000E+00  1.000000E+00  1.000000E+00  0.000000E+00  0.000000E+00  8.214996E-01  9.692127E+02  1.000000E-01  1.100000E-17  1.100000E-17  1.100000E-17  0.000000E+00  1.000000E+00
  4.500000E+00  2.500000E+00 -5.000000E-01  3.954475E+07  1.098075E+02  0.000000E+00  1.000000E+00  1.000000E+00  0.000000E+00  0.000000E+00  8.214996E-01  9.692127E+02  1.000000E-01  1.100000E-17  1.100000E-17  1.100000E-17  0.000000E+00  1.000000E+00
  5.500000E+00  2.500000E+00 -5.000000E-01  3.954475E+07  1.098075E+02  0.000000E+00  1.000000E+00  1.000000E+00  0.000000E+00  0.000000E+00  8.214996E-01  9.692127E+02  1.000000E-01  1.100000E-17  1.100000E-17  1.100000E-17  0.000000E+00  1.000000E+00
  5.000000E-01  3.500000E+00 -5.500000E+00  3.959498E+07  1.099825E+02  0.000000E+00  1.000000E+00  1.000000E+00  0.000000E+00  0.000000E+00  8.260351E-01  9.691103E+02  2.000000E-01  1.100000E-17  1.100000E-17  1.100000E-17  0.000000E+00  1.000000E+00
  1.500000E+00  3.500000E+00 -5.500000E+00  3.959498E+07  1.099825E+02  0.000000E+00  1.000000E+00  1.000000E+00  0.000000E+00  0.000000E+00  8.260351E-01  9.691103E+02  2.000000E-01  1.100000E-17  1.100000E-17  1.100000E-17  0.000000E+00  1.000000E+00
  2.500000E+00  3.500000E+00 -5.500000E+00  3.959498E+07  1.099825E+02  0.000000E+00  1.000000E+00  1.000000E+00  0.000000E+00  0.000000E+00  8.260351E-01  9.691103E+02  2.000000E-01  1.100000E-17  1.100000E-17  1.100000E-17  0.000000E+00  1.000000E+00
  3.500000E+00  3.500000E+00 -5.500000E+00  3.959498E+07  1.099825E+02  0.000000E+00  1.000000E+00  1.000000E+00  0.000000E+00  0.000000E+00  8.260351E-01  9.691103E+02  2.000000E-01  1.100000E-17  1.100000E-17  1.100000E-17  0.000000E+00  1.000000E+00
  4.500000E+00  3.500000E+00 -5.500000E+00  3.959498E+07  1.099825E+02  0.000000E+00  1.000000E+00  1.000000E+00  0.000000E+00  0.000000E+00  8.260351E-01  9.691103E+02  2.000000E-01  1.100000E-17  1.100000E-17  1.100000E-17  0.000000E+00  1.000000E+00
  5.500000E+00  3.500000E+00 -5.500000E+00  3.959498E+07  1.099825E+02  0.000000E+00  1.000000E+00  1.000000E+00  0.000000E+00  0.000000E+00  8.260351E-01  9.691103E+02  2.000000E-01  1.100000E-17  1.100000E-17  1.100000E-17  0.000000E+00  1.000000E+00
  5.000000E-01  3.500000E+00 -4.500000E+00  3.958493E+07  1.099475E+02  0.000000E+00  1.000000E+00  1.000000E+00  0.000000E+00  0.000000E+00  8.251264E-01  9.691308E+02  2.000000E-01  1.100000E-13  1.100000E-13  1.100000E-15  0.000000E+00  1.000000E+00
  1.500000E+00  3.500000E+00 -4.500000E+00  3.958493E+07  1.099475E+02  0.000000E+00  1.000000E+00  1.000000E+00  0.000000E+00  0.000000E+00  8.251264E-01  9.691308E+02  2.000000E-01  1.100000E-13  1.100000E-13  1.100000E-15  0.000000E+00  1.000000E+00
  2.500000E+00  3.500000E+00 -4.500000E+00  3.958493E+07  1.099475E+02  0.000000E+00  1.000000E+00  1.000000E+00  0.000000E+00  0.000000E+00  8.251264E-01  9.691308E+02  2.000000E-01  1.100000E-13  1.100000E-13  1.100000E-15  0.000000E+00  1.000000E+00