Title="TOUGHREACT V3.30-OMP flowdata.tec: P,T,SAT & Other Variables"                                                                                                                                                                                                                                                                                                                                                                                                                                                                                                                                                                                                                                                                                                                                                            
Variables= "X(m)"     "Y(m)"      "Z(m)"       "P(Pa)"        "T(C)"      "SatGas"      "SatLiq"          "X1"          "X2"    "Pcap(Pa)"  "DGas_kg/m3"  "DLiq_kg/m3"    "Porosity"  "Perm_X(m2)"  "Perm_Y(m2)"  "Perm_Z(m2)"    "Krel_Gas"    "Krel_Liq"                                                                                                                                                                                                                                                                                                                                                                                                                                                                                                                                                                      
Zone T= "1.72800000E+05 sec" I=     4 J=     4 K=     4 F=Point
  5.000000E-01  5.000000E-01 -3.500000E+00  3.959498E+07  1.099825E+02  0.000000E+00  1.000000E+00  1.000000E+00  0.000000E+00  0.000000E+00  8.260351E-01  9.691103E+02  6.857937E-02  1.009211E-15  1.009211E-15  1.800000E-08  0.000000E+00  1.000000E+00                                                                                                                                                                                                                                                                                                                                                                                                                                                                                                                                                                    
  1.500000E+00  5.000000E-01 -3.500000E+00  3.959498E+07  1.099825E+02  0.000000E+00  1.000000E+00  1.000000E+00  0.000000E+00  0.000000E+00  8.260351E-01  9.691103E+02  6.000000E-02  1.000000E-15  1.000000E-15  1.000000E-15  0.000000E+00  1.000000E+00                                                                                                                                                                                                                                                                                                                                                                                                                                                                                                                                                                    
  2.500000E+00  5.000000E-01 -3.500000E+00  3.959498E+07  1.099825E+02  0.000000E+00  1.000000E+00  1.000000E+00  0.000000E+00  0.000000E+00  8.260351E-01  9.691103E+02  6.000000E-02  1.000000E-15  1.000000E-15  1.000000E-15  0.000000E+00  1.000000E+00                                                                                                                                                                                                                                                                                                                                                                                                                                                                                                                                                                    
  3.500000E+00  5.000000E-01 -3.500000E+00  3.959498E+07  1.099825E+02  0.000000E+00  1.000000E+00  1.000000E+00  0.000000E+00  0.000000E+00  8.260351E-01  9.691103E+02  6.000000E-02  1.000000E-15  1.000000E-15  1.000000E-15  0.000000E+00  1.000000E+00                                                                                                                                                                                                                                                                                                                                                                                                                                                                                                                                                                    
  5.000000E-01  5.000000E-01 -2.500000E+00  3.958493E+07  1.099475E+02  0.000000E+00  1.000000E+00  1.000000E+00  0.000000E+00  0.000000E+00  8.251264E-01  9.691308E+02  6.857937E-02  1.009211E-15  1.009211E-15  1.800000E-08  0.000000E+00  1.000000E+00                                                                                                                                                                                                                                                                                                                                                                                                                                                                                                                                                                    
  1.500000E+00  5.000000E-01 -2.500000E+00  3.958493E+07  1.099475E+02  0.000000E+00  1.000000E+00  1.000000E+00  0.000000E+00  0.000000E+00  8.251264E-01  9.691308E+02  6.000000E-02  1.000000E-15  1.000000E-15  1.000000E-15  0.000000E+00  1.000000E+00                                                                                                                                                                                                                                                                                                                                                                                                                                                                                                                                                                    
  2.500000E+00  5.000000E-01 -2.500000E+00  3.958493E+07  1.099475E+02  0.000000E+00  1.000000E+00  1.000000E+00  0.000000E+00  0.000000E+00  8.251264E-01  9.691308E+02  6.000000E-02  1.000000E-15  1.000000E-15  1.000000E-15  0.000000E+00  1.000000E+00                                                                                                                                                                                                                                                                                                                                                                                                                                                                                                                                                                    
  3.500000E+00  5.000000E-01 -2.500000E+00  3.958493E+07  1.099475E+02  0.000000E+00  1.000000E+00  1.000000E+00  0.000000E+00  0.000000E+00  8.251264E-01  9.691308E+02  6.000000E-02  1.000000E-15  1.000000E-15  1.000000E-15  0.000000E+00  1.000000E+00                                                                                                                                                                                                                                                                                                                                                                                                                                                                                                                                                                    
  5.000000E-01  5.000000E-01 -1.500000E+00  3.957489E+07  1.099125E+02  0.000000E+00  1.000000E+00  1.000000E+00  0.000000E+00  0.000000E+00  8.242185E-01  9.691513E+02  7.666617E-03  0.000000E+00  0.000000E+00  1.800000E-08  0.000000E+00  1.000000E+00                                                                                                                                                                                                                                                                                                                                                                                                                                                                                                                                                                    
  1.500000E+00  5.000000E-01 -1.500000E+00  3.957489E+07  1.099125E+02  0.000000E+00  1.000000E+00  1.000000E+00  0.000000E+00  0.000000E+00  8.242185E-01  9.691513E+02  6.000000E-02  1.000000E-15  1.000000E-15  1.000000E-15  0.000000E+00  1.000000E+00                                                                                                                                                                                                                                                                                                                                                                                                                                                                                                                                                                    
  2.500000E+00  5.000000E-01 -1.500000E+00  3.957489E+07  1.099125E+02  0.000000E+00  1.000000E+00  1.000000E+00  0.000000E+00  0.000000E+00  8.242185E-01  9.691513E+02  6.000000E-02  1.000000E-15  1.000000E-15  1.000000E-15  0.000000E+00  1.000000E+00                                                                                                                                                                                                                                                                                                                                                                                                                                                                                                                                                                    
  3.500000E+00  5.000000E-01 -1.500000E+00  3.957489E+07  1.099125E+02  0.000000E+00  1.000000E+00  1.000000E+00  0.000000E+00  0.000000E+00  8.242185E-01  9.691513E+02  6.000000E-02  1.000000E-15  1.000000E-15  1.000000E-15  0.000000E+00  1.000000E+00                                                                                                                                                                                                                                                                                                                                                                                                                                                                                                                                                                    
  5.000000E-01  5.000000E-01 -5.000000E-01  3.956484E+07  1.098775E+02  0.000000E+00  1.000000E+00  1.000000E+00  0.000000E+00  0.000000E+00  8.233114E-01  9.691717E+02  7.666617E-03  0.000000E+00  0.000000E+00  1.800000E-08  0.000000E+00  1.000000E+00                                                                                                                                                                                                                                                                                                                                                                                                                                                                                                                                                                    
  1.500000E+00  5.000000E-01 -5.000000E-01  3.956484E+07  1.098775E+02  0.000000E+00  1.000000E+00  1.000000E+00  0.000000E+00  0.000000E+00  8.233114E-01  9.691717E+02  6.000000E-02  1.000000E-15  1.000000E-15  1.000000E-15  0.000000E+00  1.000000E+00                                                                                                                                                                                                                                                                                                                                                                                                                                                                                                                                                                    
  2.500000E+00  5.000000E-01 -5.000000E-01  3.956484E+07  1.098775E+02  0.000000E+00  1.000000E+00  1.000000E+00  0.000000E+00  0.000000E+00  8.233114E-01  9.691717E+02  6.000000E-02  1.000000E-15  1.000000E-15  1.000000E-15  0.000000E+00  1.000000E+00                                                                                                                                                                                                                                                                                                                                                                                                                                                                                                                                                                    
  3.500000E+00  5.000000E-01 -5.000000E-01  3.956484E+07  1.098775E+02  0.000000E+00  1.000000E+00  1.000000E+00  0.000000E+00  0.000000E+00  8.233114E-01  9.691717E+02  6.000000E-02  1.000000E-15  1.000000E-15  1.000000E-15  0.000000E+00  1.000000E+00                                                                                                                                                                                                                                                                                                                                                                                                                                                                                                                                                                    
  5.000000E-01  1.500000E+00 -3.500000E+00  3.959498E+07  1.099825E+02  0.000000E+00  1.000000E+00  1.000000E+00  0.000000E+00  0.000000E+00  8.260351E-01  9.691103E+02  6.000000E-02  1.000000E-15  1.000000E-15  1.000000E-15  0.000000E+00  1.000000E+00                                                                                                                                                                                                                                                                                                                                                                                                                                                                                                                                                                    
  1.500000E+00  1.500000E+00 -3.500000E+00  3.959498E+07  1.099825E+02  0.000000E+00  1.000000E+00  1.000000E+00  0.000000E+00  0.000000E+00  8.260351E-01  9.691103E+02  6.000000E-02  1.000000E-15  1.000000E-15  1.000000E-15  0.000000E+00  1.000000E+00                                                                                                                                                                                                                                                                                                                                                                                                                                                                                                                                                                    
  2.500000E+00  1.500000E+00 -3.500000E+00  3.959498E+07  1.099825E+02  0.000000E+00  1.000000E+00  1.000000E+00  0.000000E+00  0.000000E+00  8.260351E-01  9.691103E+02  6.000000E-02  1.000000E-15  1.000000E-15  1.000000E-15  0.000000E+00  1.000000E+00                                                                                                                                                                                                                                                                                                                                                                                                                                                                                                                                                                    
  3.500000E+00  1.500000E+00 -3.500000E+00  3.959498E+07  1.099825E+02  0.000000E+00  1.000000E+00  1.000000E+00  0.000000E+00  0.000000E+00  8.260351E-01  9.691103E+02  6.000000E-02  1.000000E-15  1.000000E-15  1.000000E-15  0.000000E+00  1.000000E+00                                                                                                                                                                                                                                                                                                                                                                                                                                                                                                                                                                    
  5.000000E-01  1.500000E+00 -2.500000E+00  3.958486E+07  1.099477E+02  0.000000E+00  1.000000E+00  1.000000E+00  0.000000E+00  0.000000E+00  8.251303E-01  9.691306E+02  5.999999E-02  1.000000E-15  1.000000E-15  1.000000E-15  0.000000E+00  1.000000E+00                                                                                                                                                                                                                                                                                                                                                                                                                                                                                                                                                                    
  1.500000E+00  1.500000E+00 -2.500000E+00  3.958469E+07  1.099481E+02  0.000000E+00  1.000000E+00  1.000000E+00  0.000000E+00  0.000000E+00  8.251427E-01  9.691302E+02  5.999996E-02  1.000000E-15  1.000000E-15  1.000000E-15  0.000000E+00  1.000000E+00                                                                                                                                                                                                                                                                                                                                                                                                                                                                                                                                                                    
  2.500000E+00  1.500000E+00 -2.500000E+00  3.958429E+07  1.099476E+02  0.000000E+00  1.000000E+00  1.000000E+00  0.000000E+00  0.000000E+00  8.251293E-01  9.691304E+02  2.999994E-01  2.941000E-07  2.941000E-07  2.941000E-07  0.000000E+00  1.000000E+00                                                                                                                                                                                                                                                                                                                                                                                                                                                                                                                                                                    
  3.500000E+00  1.500000E+00 -2.500000E+00  3.958493E+07  1.099475E+02  0.000000E+00  1.000000E+00  1.000000E+00  0.000000E+00  0.000000E+00  8.251264E-01  9.691308E+02  6.000000E-02  1.000000E-15  1.000000E-15  1.000000E-15  0.000000E+00  1.000000E+00                                                                                                                                                                                                                                                                                                                                                                                                                                                                                                                                                                    
  5.000000E-01  1.500000E+00 -1.500000E+00  3.957482E+07  1.099132E+02  0.000000E+00  1.000000E+00  1.000000E+00  0.000000E+00  0.000000E+00  8.242357E-01  9.691508E+02  5.999999E-02  1.000000E-15  1.000000E-15  1.000000E-15  0.000000E+00  1.000000E+00                                                                                                                                                                                                                                                                                                                                                                                                                                                                                                                                                                    
  1.500000E+00  1.500000E+00 -1.500000E+00  3.957475E+07  1.099174E+02  0.000000E+00  1.000000E+00  1.000000E+00  0.000000E+00  0.000000E+00  8.243458E-01  9.691477E+02  5.999998E-02  1.000000E-15  1.000000E-15  1.000000E-15  0.000000E+00  1.000000E+00                                                                                                                                                                                                                                                                                                                                                                                                                                                                                                                                                                    
  2.500000E+00  1.500000E+00 -1.500000E+00  3.957461E+07  1.099444E+02  0.000000E+00  1.000000E+00  1.000000E+00  0.000000E+00  0.000000E+00  8.250470E-01  9.691284E+02  3.000000E-01  2.941000E-07  2.941000E-07  2.941000E-07  0.000000E+00  1.000000E+00                                                                                                                                                                                                                                                                                                                                                                                                                                                                                                                                                                    
  3.500000E+00  1.500000E+00 -1.500000E+00  3.957489E+07  1.099125E+02  0.000000E+00  1.000000E+00  1.000000E+00  0.000000E+00  0.000000E+00  8.242185E-01  9.691513E+02  6.000000E-02  1.000000E-15  1.000000E-15  1.000000E-15  0.000000E+00  1.000000E+00                                                                                                                                                                                                                                                                                                                                                                                                                                                                                                                                                                    
  5.000000E-01  1.500000E+00 -5.000000E-01  3.956484E+07  1.098775E+02  0.000000E+00  1.000000E+00  1.000000E+00  0.000000E+00  0.000000E+00  8.233114E-01  9.691717E+02  6.000000E-02  1.000000E-15  1.000000E-15  1.000000E-15  0.000000E+00  1.000000E+00                                                                                                                                                                                                                                                                                                                                                                                                                                                                                                                                                                    
  1.500000E+00  1.500000E+00 -5.000000E-01  3.956484E+07  1.098775E+02  0.000000E+00  1.000000E+00  1.000000E+00  0.000000E+00  0.000000E+00  8.233114E-01  9.691717E+02  6.000000E-02  1.000000E-15  1.000000E-15  1.000000E-15  0.000000E+00  1.000000E+00                                                                                                                                                                                                                                                                                                                                                                                                                                                                                                                                                                    
  2.500000E+00  1.500000E+00 -5.000000E-01  3.956484E+07  1.098775E+02  0.000000E+00  1.000000E+00  1.000000E+00  0.000000E+00  0.000000E+00  8.233114E-01  9.691717E+02  3.000000E-01  2.941000E-07  2.941000E-07  2.941000E-07  0.000000E+00  1.000000E+00                                                                                                                                                                                                                                                                                                                                                                                                                                                                                                                                                                    
  3.500000E+00  1.500000E+00 -5.000000E-01  3.956484E+07  1.098775E+02  0.000000E+00  1.000000E+00  1.000000E+00  0.000000E+00  0.000000E+00  8.233114E-01  9.691717E+02  6.000000E-02  1.000000E-15  1.000000E-15  1.000000E-15  0.000000E+00  1.000000E+00                                                                                                                                                                                                                                                                                                                                                                                                                                                                                                                                                                    
  5.000000E-01  2.500000E+00 -3.500000E+00  3.959498E+07  1.099825E+02  0.000000E+00  1.000000E+00  1.000000E+00  0.000000E+00  0.000000E+00  8.260351E-01  9.691103E+02  6.000000E-02  1.000000E-15  1.000000E-15  1.000000E-15  0.000000E+00  1.000000E+00                                                                                                                                                                                                                                                                                                                                                                                                                                                                                                                                                                    
  1.500000E+00  2.500000E+00 -3.500000E+00  3.959498E+07  1.099825E+02  0.000000E+00  1.000000E+00  1.000000E+00  0.000000E+00  0.000000E+00  8.260351E-01  9.691103E+02  6.000000E-02  1.000000E-15  1.000000E-15  1.000000E-15  0.000000E+00  1.000000E+00                                                                                                                                                                                                                                                                                                                                                                                                                                                                                                                                                                    
  2.500000E+00  2.500000E+00 -3.500000E+00  3.959498E+07  1.099825E+02  0.000000E+00  1.000000E+00  1.000000E+00  0.000000E+00  0.000000E+00  8.260351E-01  9.691103E+02  6.000000E-02  1.000000E-15  1.000000E-15  1.000000E-15  0.000000E+00  1.000000E+00                                                                                                                                                                                                                                                                                                                                                                                                                                                                                                                                                                    